 +-------------------------------------------------+
 |                                                 |
 |      CCC   AA    SSS  TTTTT  EEEEE  PPPP        |
 |     C     A  A  S       T    E      P   P       |
 |     C     AAAA   SS     T    EEE    PPPP        |
 |     C     A  A     S    T    E      P           |
 |      CCC  A  A  SSS     T    EEEEE  P           |
 |                                                 |
 +-------------------------------------------------+
 |                                                 |
 | Welcome to Academic Release CASTEP version 24.1 |
 | Ab Initio Total Energy Program                  |
 |                                                 |
 | Authors:                                        |
 | M. Segall, M. Probert, C. Pickard, P. Hasnip,   |
 | S. Clark, K. Refson, J. R. Yates,               |
 | A. Bartok-Partay, M. Payne                      |
 |                                                 |
 | Contributors:                                   |
 | P. Lindan, P. Haynes, J. White, V. Milman,      |
 | N. Govind, M. Gibson, P. Tulip, V. Cocula,      |
 | B. Montanari, D. Quigley, M. Glover,            |
 | L. Bernasconi, A. Perlov, M. Plummer,           |
 | E. McNellis, J. Meyer, J. Gale, D. Jochym       |
 | J. Aarons, B. Walker, R. Gillen, D. Jones       |
 | T. Green, I. J. Bush, C. J. Armstrong,          |
 | E. J. Higgins, E. L. Brown, M. S. McFly,        |
 | J. Wilkins, B-C. Shih, P. J. P. Byrne,          |
 | R. J. Maurer, J. C. Womack, J. Dziedzic,        |
 | L. LeBlanc, T. K. Stenczel, J. Kermode,         |
 | S. Sturniolo, B. Shi, B. Durham, M. Evans,      |
 | M. J. Smith, A. Tamerus, Z. Hawkhead,           |
 | V. Ravindran, T. Hollins, S. A. Joyce,          |
 | R. T. Strong, A. M. Reilly, S. J. Donaldson     |
 |                                                 |
 | Copyright (c) 2000 - 2023                       |
 |                                                 |
 |     Distributed under license from Cambridge    |
 |     Enterprise for academic use only.           |
 |                                                 |
 | Please cite                                     |
 |                                                 |
 |     "First principles methods using CASTEP"     |
 |                                                 |
 |         Zeitschrift fuer Kristallographie       |
 |           220(5-6) pp. 567-570 (2005)           |
 |                                                 |
 | S. J. Clark, M. D. Segall, C. J. Pickard,       |
 | P. J. Hasnip, M. J. Probert, K. Refson,         |
 | M. C. Payne                                     |
 |                                                 |
 |       in all publications arising from          |
 |              your use of CASTEP                 |
 |                                                 |
 +-------------------------------------------------+
 |                                                 |
 |              http://www.castep.org              |
 |                                                 |
 +-------------------------------------------------+



 Compiled for linux_x86_64_gfortran10 on Fri, 08 Nov 2024 13:17:28 +0100
 from code version 6355fd106  Castep241_branch  Thu Mar 7 17:56:19 2024 +0000
 Compiler: GNU Fortran 13.2.0; Optimisation: fast
 Comms   : serial
 MATHLIBS: Intel MKL(2024.2-Product) (LAPACK version 3.11.0)
 FFT Lib : fftw3 version fftw-3.3.10-sse2-avx-avx2-avx2_128
 Fundamental constants values: CODATA 2018

 Run started: Sun, 02 Feb 2025 14:13:04 +0100

 Warning in parameters_validate: current value of 
   ELEC_EIGENVALUE_TOL = 0.100000E-08eV
   is too large to achieve desired level of convergence of response properties.
   This may cause convergence failures and/or inaccuracy of results
   of PHONON+EFIELD calculations - recommend you use a smaller value, e.g. 
   ELEC_EIGENVALUE_TOL = 0.343750E-10eV
 +-------------------------------------------------+
 |                                                 |
 |  D D D D    F F F F F  P P P P     T T T T T    |
 |  D       D  F          P       P       T        |
 |  D       D  F F F F    P P P P         T        |
 |  D       D  F          P               T        |
 |  D D D D    F          P               T        |
 |                                                 |
 +-------------------------------------------------+
 |                                                 |
 | Welcome to Castep Linear Response (DFPT)        |
 |                                                 |
 | Copyright (c) 2006 - 2023                       |
 |                                                 |
 | Please cite the following publications in all   |
 | work arising from your use of CASTEP LR.        |
 |                                                 |
 | K. Refson, S. J. Clark and P. R. Tulip          |
 | Variational density functional perturbation     |
 | theory for dielectrics and lattice dynamics     |
 | Phys. Rev. B 73(15), 155114 (2006)              |
 +-------------------------------------------------+


 Pseudo atomic calculation performed for O 2s2 2p4

 Converged in 43 iterations to a total energy of -429.3747 eV

 Pseudo atomic calculation performed for Si 3s2 3p2

 Converged in 25 iterations to a total energy of -215.5493 eV

 Pseudo atomic calculation performed for Bi 6s2 6p3

 Converged in 25 iterations to a total energy of -693.8005 eV
 Calculation not parallelised.

 ************************************ Title ************************************
 

 ***************************** General Parameters ******************************
  
 output verbosity                               : normal  (1)
 write checkpoint data to                       : test.check
 type of calculation                            : Phonon followed by E-field
 stress calculation                             : on
 density difference calculation                 : off
 electron localisation func (ELF) calculation   : off
 Hirshfeld analysis                             : off
 polarisation (Berry phase) analysis            : off
 molecular orbital projected DOS                : off
 deltaSCF calculation                           : off
 unlimited duration calculation
 timing information                             : on
 memory usage estimate                          : on
 write extra output files                       : on
 write final potential to formatted file        : off
 write final density to formatted file          : off
 write structure in CIF formatted file          : on
 write structure in CELL formatted file         : on
 write BibTeX reference list                    : on
 write OTFG pseudopotential files               : on
 write electrostatic potential file             : on
 write bands file                               : on
 checkpoint writing                             : both castep_bin and check files
  
 output         length unit                     : A
 output           mass unit                     : amu
 output           time unit                     : ps
 output         charge unit                     : e
 output           spin unit                     : hbar/2
 output         energy unit                     : eV
 output          force unit                     : eV/A
 output       velocity unit                     : A/ps
 output       pressure unit                     : GPa
 output     inv_length unit                     : 1/A
 output      frequency unit                     : cm-1
 output force constant unit                     : eV/A**2
 output         volume unit                     : A**3
 output   IR intensity unit                     : (D/A)**2/amu
 output         dipole unit                     : D
 output         efield unit                     : eV/A/e
 output        entropy unit                     : J/mol/K
 output    efield chi2 unit                     : pm/V
  
 wavefunctions paging                           : none
 random number generator seed                   :  141304210
 data distribution                              : optimal for this architecture
 optimization strategy                          : maximize speed(+++)

 *********************** Exchange-Correlation Parameters ***********************
  
 using functional                               : Perdew Burke Ernzerhof
 relativistic treatment                         : Koelling-Harmon
 DFT+D: Semi-empirical dispersion correction    : off

 ************************* Pseudopotential Parameters **************************
  
 pseudopotential representation                 : reciprocal space
 <beta|phi> representation                      : reciprocal space
 spin-orbit coupling                            : off

 **************************** Basis Set Parameters *****************************
  
 plane wave basis set cut-off                   :  1220.0000   eV
 size of standard grid                          :     2.0000
 size of   fine   gmax                          :    35.7889   1/A
 finite basis set correction                    : none

 **************************** Electronic Parameters ****************************
  
 number of  electrons                           :  184.0    
 net charge of system                           :  0.000    
 treating system as non-spin-polarized
 number of bands                                :         96

 ********************* Electronic Minimization Parameters **********************
  
 Method: Treating system as non-metallic,
         and number of  SD  steps               :          1
         and number of  CG  steps               :          4
  
 total energy / atom convergence tol.           : 0.1000E-09   eV
 max force / atom convergence tol.              : ignored
 convergence tolerance window                   :          2   cycles
 max. number of SCF cycles                      :        100
 periodic dipole correction                     : NONE

 ****************************** Phonon Parameters ******************************
  
 phonon calculation method                      : linear response
 phonon convergence tolerance                   : 0.1000E-04   eV/A**2
 max. number of phonon cycles                   :        100
 max. number of phonon CG steps                 :          0
 convergence tolerance window                   :          2   cycles
 DFPT solver method                             : AllBands (Gonze variational method)
 preconditioning scheme                         : TPA     
 fine phonon calculation method                 : none
 LO/TO splitting term                           : included
 acoustic phonon sum rule                       : correct D(q) in recip-space
 Born effective charges                         : calculated
 Born charge sum rule                           : explicitly enforced
 Raman intensities                              : calculated
 Raman frequency window start                   :  0.000       eV
 Raman frequency window stop                    :  1.240       eV
 Raman tensor calculated using                  : DFPT
 phonon k-points                                : use reduced set
 phonon DOS                                     : not calculated
 backups results every                          :        900   seconds

 ***************************** E-Field Parameters ******************************
  
 E-field convergence tolerance                  : 0.1000E-04   A**3
 DFPT solver method                             : AllBands (Gonze variational method)
 ionic contribution to permittivity             : included
 treating system as a crystal, 
 => ignoring 3 lowest modes when calculating ionic  contribution to permittivity
 calculation with frequency spacing             : 0.4556E-05   cm-1
 Q-factor for lineshape broadening              :    50.0000
 calculate non-linear optical properties        : OFF
 max. number of E-field cycles                  :        500
 max. number of E-field CG steps                :          0
 convergence tolerance window                   :          2   cycles
 band convergence tolerance                     : 0.1000E-08   eV

 *******************************************************************************
  

                           -------------------------------
                                      Unit Cell
                           -------------------------------
        Real Lattice(A)                      Reciprocal Lattice(1/A)
    -5.1439990     5.1439990     5.1439990        0.000000000   0.610729641   0.610729641
     5.1439990    -5.1439990     5.1439990        0.610729641   0.000000000   0.610729641
     5.1439990     5.1439990    -5.1439990        0.610729641   0.610729641   0.000000000

                       Lattice parameters(A)       Cell Angles
                    a =      8.909668          alpha =  109.471221
                    b =      8.909668          beta  =  109.471221
                    c =      8.909668          gamma =  109.471221

                       Current cell volume =           544.455783       A**3
                                   density =             5.245308   AMU/A**3
                                           =             8.710038     g/cm^3

                           -------------------------------
                                     Cell Contents
                           -------------------------------
                         Total number of ions in cell =   33
                      Total number of species in cell =    3
                        Max number of any one species =   20

            xxxxxxxxxxxxxxxxxxxxxxxxxxxxxxxxxxxxxxxxxxxxxxxxxxxxxxxxxxxx
            x  Element    Atom        Fractional coordinates of atoms  x
            x            Number           u          v          w      x
            x----------------------------------------------------------x
            x  O            1         0.253603   0.379823   0.615564   x 
            x  O            2         0.600998   0.600998   0.600998   x 
            x  O            3         0.188147   0.188147   0.188147   x 
            x  O            4         0.615564   0.253603   0.379823   x 
            x  O            5         0.764258   0.638039   0.384436   x 
            x  O            6        -0.000000  -0.000000   0.399002   x 
            x  O            7        -0.000000  -0.000000   0.811853   x 
            x  O            8         0.235742   0.620177   0.873780   x 
            x  O            9        -0.000000   0.399002   0.000000   x 
            x  O           10        -0.000000   0.811853  -0.000000   x 
            x  O           11         0.746397   0.361961   0.126220   x 
            x  O           12         0.399002   0.000000   0.000000   x 
            x  O           13         0.811853  -0.000000   0.000000   x 
            x  O           14         0.379823   0.615564   0.253603   x 
            x  O           15         0.384436   0.764258   0.638039   x 
            x  O           16         0.873780   0.235742   0.620177   x 
            x  O           17         0.126220   0.746397   0.361961   x 
            x  O           18         0.638039   0.384436   0.764258   x 
            x  O           19         0.620177   0.873780   0.235742   x 
            x  O           20         0.361961   0.126220   0.746397   x 
            x  Si           1         0.000000   0.000000   0.000000   x 
            x  Bi           1         0.665964   0.808749   0.505419   x 
            x  Bi           2         0.505419   0.665964   0.808749   x 
            x  Bi           3         0.303330   0.160545   0.494581   x 
            x  Bi           4         0.696670   0.191251   0.857215   x 
            x  Bi           5         0.334036   0.839455   0.142785   x 
            x  Bi           6         0.808749   0.505419   0.665964   x 
            x  Bi           7         0.494581   0.303330   0.160545   x 
            x  Bi           8         0.857215   0.696670   0.191251   x 
            x  Bi           9         0.142785   0.334036   0.839455   x 
            x  Bi          10         0.160545   0.494581   0.303330   x 
            x  Bi          11         0.191251   0.857215   0.696670   x 
            x  Bi          12         0.839455   0.142785   0.334036   x 
            xxxxxxxxxxxxxxxxxxxxxxxxxxxxxxxxxxxxxxxxxxxxxxxxxxxxxxxxxxxx


                         No user defined ionic velocities

                           -------------------------------
                                   Details of Species
                           -------------------------------

                               Mass of species in AMU
                                    O   15.9994000
                                    Si   28.0855000
                                    Bi  208.9803800

                          Electric Quadrupole Moment (Barn)
                                    O   -0.0255800 Isotope 17
                                    Si    1.0000000 No Isotope Defined
                                    Bi   -0.5160000 Isotope209

                          Files used for pseudopotentials:
                                    O O_NCP19_PBE_OTF.usp
                                    Si Si_NCP19_PBE_OTF.usp
                                    Bi Bi_NCP19_PBE_OTF.usp

                           -------------------------------
                              k-Points For BZ Sampling
                           -------------------------------
                       MP grid size for SCF calculation is  4  4  4
                            with an offset of   0.000  0.000  0.000
                       Number of kpoints used =             7

                           -------------------------------
                               Symmetry and Constraints
                           -------------------------------

                      Maximum deviation from symmetry = 0.359792E-13     ANG

                      Number of symmetry operations   =          12
         There are no ionic constraints specified or generated for this cell
                      Point group of crystal =    28: T, 23, 2 3
                      Space group of crystal =   197: I23, I 2 2 3

             Set iprint > 1 for details on symmetry rotations/translations

                         Centre of mass is NOT constrained

                         Number of cell constraints= 5
                         Cell constraints are:  1 1 1 0 0 0

                         External pressure/stress (GPa)
                          0.00000   0.00000   0.00000
                                    0.00000   0.00000
                                              0.00000
                    k-Points For SCF Sampling:           7
             +++++++++++++++++++++++++++++++++++++++++++++++++++++++
             +  Number       Fractional coordinates        Weight  +
             +-----------------------------------------------------+
             +     1  -0.125000  -0.375000   0.375000   0.1875000  +
             +     2   0.125000  -0.375000   0.125000   0.1250000  +
             +     3   0.125000  -0.125000  -0.375000   0.1875000  +
             +     4   0.125000  -0.125000   0.125000   0.0937500  +
             +     5   0.125000   0.375000   0.375000   0.1875000  +
             +     6   0.375000  -0.375000   0.375000   0.0937500  +
             +     7   0.375000   0.375000   0.375000   0.1250000  +
             +++++++++++++++++++++++++++++++++++++++++++++++++++++++

                    k-Points For Phonons:           1
             +++++++++++++++++++++++++++++++++++++++++++++++++++++++
             +  Number       Fractional coordinates        Weight  +
             +-----------------------------------------------------+
             +     1   0.000000   0.000000   0.000000   1.0000000  +
             +++++++++++++++++++++++++++++++++++++++++++++++++++++++

                    k-Points For Fine Phonons:           1
             +++++++++++++++++++++++++++++++++++++++++++++++++++++++
             +  Number       Fractional coordinates        Weight  +
             +-----------------------------------------------------+
             +     1   0.000000   0.000000   0.000000   1.0000000  +
             +++++++++++++++++++++++++++++++++++++++++++++++++++++++

 
+---------------- MEMORY AND SCRATCH DISK ESTIMATES PER PROCESS --------------+
|                                                     Memory          Disk    |
| Baseline code, static data and system overhead      214.0 MB         0.0 MB |
| BLAS internal memory storage                          0.0 MB         0.0 MB |
| Model and support data                             1003.2 MB         0.0 MB |
| Electronic energy minimisation requirements        2780.2 MB         0.0 MB |
| Force calculation requirements                      182.6 MB         0.0 MB |
| Stress calculation requirements                     201.8 MB         0.0 MB |
|                                               ----------------------------- |
| Approx. total storage required per process         3997.4 MB         0.0 MB |
|                                                                             |
| Requirements will fluctuate during execution and may exceed these estimates |
+-----------------------------------------------------------------------------+

            Bond                    Length (A)
==================================================
         O 13 -- Si 1                1.67632
         O 10 -- Si 1                1.67632
         O 7  -- Si 1                1.67632
         O 3  -- Si 1                1.67632
         O 5  -- Bi 1                2.16023
         O 15 -- Bi 2                2.16023
         O 18 -- Bi 6                2.16023
         O 4  -- Bi 7                2.16023
         O 1  -- Bi 3                2.16023
         O 14 -- Bi 10               2.16023
         O 19 -- Bi 12               2.16023
         O 8  -- Bi 5                2.16023
         O 16 -- Bi 9                2.16023
         O 20 -- Bi 11               2.16023
         O 17 -- Bi 8                2.16023
         O 11 -- Bi 4                2.16023
         O 12 -- Bi 11               2.26971
         O 6  -- Bi 8                2.26971
         O 9  -- Bi 4                2.26971
         O 12 -- Bi 5                2.26971
         O 6  -- Bi 12               2.26971
         O 9  -- Bi 9                2.26971
         O 9  -- Bi 10               2.26971
         O 12 -- Bi 7                2.26971
         O 6  -- Bi 3                2.26971
         O 2  -- Bi 1                2.26971
         O 2  -- Bi 2                2.26971
         O 2  -- Bi 6                2.26971
         O 15 -- Bi 11               2.27656
         O 5  -- Bi 8                2.27656
         O 18 -- Bi 4                2.27656
         O 16 -- Bi 12               2.27656
         O 19 -- Bi 5                2.27656
         O 8  -- Bi 9                2.27656
         O 4  -- Bi 6                2.27656
         O 14 -- Bi 1                2.27656
         O 1  -- Bi 2                2.27656
         O 11 -- Bi 7                2.27656
         O 20 -- Bi 3                2.27656
         O 17 -- Bi 10               2.27656
         O 19 -- Bi 1                2.58988
         O 16 -- Bi 6                2.58988
         O 8  -- Bi 2                2.58988
         O 4  -- Bi 12               2.58988
         O 1  -- Bi 9                2.58988
         O 14 -- Bi 5                2.58988
         O 15 -- Bi 10               2.58988
         O 5  -- Bi 7                2.58988
         O 18 -- Bi 3                2.58988
         O 11 -- Bi 8                2.58988
         O 17 -- Bi 11               2.58988
         O 20 -- Bi 4                2.58988
         O 4  -- O 16                2.66287
         O 1  -- O 8                 2.66287
         O 14 -- O 19                2.66287
         O 18 -- O 20                2.66287
         O 15 -- O 17                2.66287
         O 5  -- O 11                2.66287
         O 3  -- Bi 10               2.70476
         O 3  -- Bi 3                2.70476
         O 3  -- Bi 7                2.70476
         O 10 -- Bi 6                2.70476
         O 7  -- Bi 1                2.70476
         O 13 -- Bi 2                2.70476
         O 13 -- Bi 4                2.70476
         O 10 -- Bi 8                2.70476
         O 7  -- Bi 11               2.70476
         O 7  -- Bi 9                2.70476
         O 10 -- Bi 5                2.70476
         O 13 -- Bi 12               2.70476
         O 7  -- O 10                2.73742
         O 3  -- O 7                 2.73742
         O 3  -- O 13                2.73742
         O 7  -- O 13                2.73742
         O 10 -- O 13                2.73742
         O 3  -- O 10                2.73742
         O 6  -- O 17                2.81484
         O 9  -- O 14                2.81484
         O 1  -- O 6                 2.81484
         O 9  -- O 11                2.81484
         O 4  -- O 12                2.81484
         O 12 -- O 20                2.81484
         O 9  -- O 16                2.81484
         O 6  -- O 19                2.81484
         O 8  -- O 12                2.81484
         O 2  -- O 5                 2.81484
         O 2  -- O 15                2.81484
         O 2  -- O 18                2.81484
==================================================

 
             +-------------------------------------------------+
             |                                                 |
             |       DRYRUN finished ...                       |
             |       No problems found with input files.       |
             |                                                 |
             +-------------------------------------------------+
 
 +-------------------------------------------------+
 |                                                 |
 |      CCC   AA    SSS  TTTTT  EEEEE  PPPP        |
 |     C     A  A  S       T    E      P   P       |
 |     C     AAAA   SS     T    EEE    PPPP        |
 |     C     A  A     S    T    E      P           |
 |      CCC  A  A  SSS     T    EEEEE  P           |
 |                                                 |
 +-------------------------------------------------+
 |                                                 |
 | Welcome to Academic Release CASTEP version 24.1 |
 | Ab Initio Total Energy Program                  |
 |                                                 |
 | Authors:                                        |
 | M. Segall, M. Probert, C. Pickard, P. Hasnip,   |
 | S. Clark, K. Refson, J. R. Yates,               |
 | A. Bartok-Partay, M. Payne                      |
 |                                                 |
 | Contributors:                                   |
 | P. Lindan, P. Haynes, J. White, V. Milman,      |
 | N. Govind, M. Gibson, P. Tulip, V. Cocula,      |
 | B. Montanari, D. Quigley, M. Glover,            |
 | L. Bernasconi, A. Perlov, M. Plummer,           |
 | E. McNellis, J. Meyer, J. Gale, D. Jochym       |
 | J. Aarons, B. Walker, R. Gillen, D. Jones       |
 | T. Green, I. J. Bush, C. J. Armstrong,          |
 | E. J. Higgins, E. L. Brown, M. S. McFly,        |
 | J. Wilkins, B-C. Shih, P. J. P. Byrne,          |
 | R. J. Maurer, J. C. Womack, J. Dziedzic,        |
 | L. LeBlanc, T. K. Stenczel, J. Kermode,         |
 | S. Sturniolo, B. Shi, B. Durham, M. Evans,      |
 | M. J. Smith, A. Tamerus, Z. Hawkhead,           |
 | V. Ravindran, T. Hollins, S. A. Joyce,          |
 | R. T. Strong, A. M. Reilly, S. J. Donaldson     |
 |                                                 |
 | Copyright (c) 2000 - 2023                       |
 |                                                 |
 |     Distributed under license from Cambridge    |
 |     Enterprise for academic use only.           |
 |                                                 |
 | Please cite                                     |
 |                                                 |
 |     "First principles methods using CASTEP"     |
 |                                                 |
 |         Zeitschrift fuer Kristallographie       |
 |           220(5-6) pp. 567-570 (2005)           |
 |                                                 |
 | S. J. Clark, M. D. Segall, C. J. Pickard,       |
 | P. J. Hasnip, M. J. Probert, K. Refson,         |
 | M. C. Payne                                     |
 |                                                 |
 |       in all publications arising from          |
 |              your use of CASTEP                 |
 |                                                 |
 +-------------------------------------------------+
 |                                                 |
 |              http://www.castep.org              |
 |                                                 |
 +-------------------------------------------------+
 
 
 
 Compiled for linux_x86_64_ifort on Tue, 12 Nov 2024 09:06:09 +0100
 from code version 6355fd106  Castep241_branch  Thu Mar 7 17:56:19 2024 +0000
 Compiler: Intel Fortran 2021.10.0; Optimisation: fast
 Comms   : Intel(R) MPI Library 2021.10 for Linux* OS
 MATHLIBS: Intel MKL(2024.2-Product) (LAPACK version 3.11.0)
 FFT Lib : fftw3 version fftw-3.3.10-sse2-avx-avx2-avx2_128
 Fundamental constants values: CODATA 2018
 
 Run started: Sun, 02 Feb 2025 14:15:59 +0100

 Warning in parameters_validate: current value of 
   ELEC_EIGENVALUE_TOL = 0.100000E-08eV
   is too large to achieve desired level of convergence of response properties.
   This may cause convergence failures and/or inaccuracy of results
   of PHONON+EFIELD calculations - recommend you use a smaller value, e.g. 
   ELEC_EIGENVALUE_TOL = 0.343750E-10eV
 +-------------------------------------------------+
 |                                                 |
 |  D D D D    F F F F F  P P P P     T T T T T    |
 |  D       D  F          P       P       T        |
 |  D       D  F F F F    P P P P         T        |
 |  D       D  F          P               T        |
 |  D D D D    F          P               T        |
 |                                                 |
 +-------------------------------------------------+
 |                                                 |
 | Welcome to Castep Linear Response (DFPT)        |
 |                                                 |
 | Copyright (c) 2006 - 2023                       |
 |                                                 |
 | Please cite the following publications in all   |
 | work arising from your use of CASTEP LR.        |
 |                                                 |
 | K. Refson, S. J. Clark and P. R. Tulip          |
 | Variational density functional perturbation     |
 | theory for dielectrics and lattice dynamics     |
 | Phys. Rev. B 73(15), 155114 (2006)              |
 +-------------------------------------------------+
 
 
 Pseudo atomic calculation performed for O 2s2 2p4
 
 Converged in 43 iterations to a total energy of -429.3747 eV
 
 Pseudo atomic calculation performed for Si 3s2 3p2
 
 Converged in 25 iterations to a total energy of -215.5493 eV
 
 Pseudo atomic calculation performed for Bi 6s2 6p3
 
 Converged in 25 iterations to a total energy of -693.8005 eV
 Calculation parallelised over 7 processes.
 Data is distributed by k-point(7-way)

 ************************************ Title ************************************
 

 ***************************** General Parameters ******************************
  
 output verbosity                               : normal  (1)
 write checkpoint data to                       : test.check
 type of calculation                            : Phonon followed by E-field
 stress calculation                             : on
 density difference calculation                 : off
 electron localisation func (ELF) calculation   : off
 Hirshfeld analysis                             : off
 polarisation (Berry phase) analysis            : off
 molecular orbital projected DOS                : off
 deltaSCF calculation                           : off
 unlimited duration calculation
 timing information                             : on
 memory usage estimate                          : on
 write extra output files                       : on
 write final potential to formatted file        : off
 write final density to formatted file          : off
 write structure in CIF formatted file          : on
 write structure in CELL formatted file         : on
 write BibTeX reference list                    : on
 write OTFG pseudopotential files               : on
 write electrostatic potential file             : on
 write bands file                               : on
 checkpoint writing                             : both castep_bin and check files
  
 output         length unit                     : A
 output           mass unit                     : amu
 output           time unit                     : ps
 output         charge unit                     : e
 output           spin unit                     : hbar/2
 output         energy unit                     : eV
 output          force unit                     : eV/A
 output       velocity unit                     : A/ps
 output       pressure unit                     : GPa
 output     inv_length unit                     : 1/A
 output      frequency unit                     : cm-1
 output force constant unit                     : eV/A**2
 output         volume unit                     : A**3
 output   IR intensity unit                     : (D/A)**2/amu
 output         dipole unit                     : D
 output         efield unit                     : eV/A/e
 output        entropy unit                     : J/mol/K
 output    efield chi2 unit                     : pm/V
  
 wavefunctions paging                           : none
 random number generator seed                   :  141559369
 data distribution                              : optimal for this architecture
 optimization strategy                          : maximize speed(+++)

 *********************** Exchange-Correlation Parameters ***********************
  
 using functional                               : Perdew Burke Ernzerhof
 relativistic treatment                         : Koelling-Harmon
 DFT+D: Semi-empirical dispersion correction    : off

 ************************* Pseudopotential Parameters **************************
  
 pseudopotential representation                 : reciprocal space
 <beta|phi> representation                      : reciprocal space
 spin-orbit coupling                            : off

 **************************** Basis Set Parameters *****************************
  
 plane wave basis set cut-off                   :  1220.0000   eV
 size of standard grid                          :     2.0000
 size of   fine   gmax                          :    35.7889   1/A
 finite basis set correction                    : none

 **************************** Electronic Parameters ****************************
  
 number of  electrons                           :  184.0    
 net charge of system                           :  0.000    
 treating system as non-spin-polarized
 number of bands                                :         96

 ********************* Electronic Minimization Parameters **********************
  
 Method: Treating system as non-metallic,
         and number of  SD  steps               :          1
         and number of  CG  steps               :          4
  
 total energy / atom convergence tol.           : 0.1000E-09   eV
 max force / atom convergence tol.              : ignored
 convergence tolerance window                   :          2   cycles
 max. number of SCF cycles                      :        100
 periodic dipole correction                     : NONE

 ****************************** Phonon Parameters ******************************
  
 phonon calculation method                      : linear response
 phonon convergence tolerance                   : 0.1000E-04   eV/A**2
 max. number of phonon cycles                   :        100
 max. number of phonon CG steps                 :          0
 convergence tolerance window                   :          2   cycles
 DFPT solver method                             : AllBands (Gonze variational method)
 preconditioning scheme                         : TPA     
 fine phonon calculation method                 : none
 LO/TO splitting term                           : included
 acoustic phonon sum rule                       : correct D(q) in recip-space
 Born effective charges                         : calculated
 Born charge sum rule                           : explicitly enforced
 Raman intensities                              : calculated
 Raman frequency window start                   :  0.000       eV
 Raman frequency window stop                    :  1.240       eV
 Raman tensor calculated using                  : DFPT
 phonon k-points                                : use reduced set
 phonon DOS                                     : not calculated
 backups results every                          :        900   seconds

 ***************************** E-Field Parameters ******************************
  
 E-field convergence tolerance                  : 0.1000E-04   A**3
 DFPT solver method                             : AllBands (Gonze variational method)
 ionic contribution to permittivity             : included
 treating system as a crystal, 
 => ignoring 3 lowest modes when calculating ionic  contribution to permittivity
 calculation with frequency spacing             : 0.4556E-05   cm-1
 Q-factor for lineshape broadening              :    50.0000
 calculate non-linear optical properties        : OFF
 max. number of E-field cycles                  :        500
 max. number of E-field CG steps                :          0
 convergence tolerance window                   :          2   cycles
 band convergence tolerance                     : 0.1000E-08   eV

 *******************************************************************************
  
 
                           -------------------------------
                                      Unit Cell
                           -------------------------------
        Real Lattice(A)                      Reciprocal Lattice(1/A)
    -5.1439990     5.1439990     5.1439990        0.000000000   0.610729641   0.610729641
     5.1439990    -5.1439990     5.1439990        0.610729641   0.000000000   0.610729641
     5.1439990     5.1439990    -5.1439990        0.610729641   0.610729641   0.000000000
 
                       Lattice parameters(A)       Cell Angles
                    a =      8.909668          alpha =  109.471221
                    b =      8.909668          beta  =  109.471221
                    c =      8.909668          gamma =  109.471221
 
                       Current cell volume =           544.455783       A**3
                                   density =             5.245308   AMU/A**3
                                           =             8.710038     g/cm^3
 
                           -------------------------------
                                     Cell Contents
                           -------------------------------
                         Total number of ions in cell =   33
                      Total number of species in cell =    3
                        Max number of any one species =   20
 
            xxxxxxxxxxxxxxxxxxxxxxxxxxxxxxxxxxxxxxxxxxxxxxxxxxxxxxxxxxxx
            x  Element    Atom        Fractional coordinates of atoms  x
            x            Number           u          v          w      x
            x----------------------------------------------------------x
            x  O            1         0.253603   0.379823   0.615564   x 
            x  O            2         0.600998   0.600998   0.600998   x 
            x  O            3         0.188147   0.188147   0.188147   x 
            x  O            4         0.615564   0.253603   0.379823   x 
            x  O            5         0.764258   0.638039   0.384436   x 
            x  O            6         0.000000   0.000000   0.399002   x 
            x  O            7         0.000000   0.000000   0.811853   x 
            x  O            8         0.235742   0.620177   0.873780   x 
            x  O            9         0.000000   0.399002   0.000000   x 
            x  O           10         0.000000   0.811853   0.000000   x 
            x  O           11         0.746397   0.361961   0.126220   x 
            x  O           12         0.399002   0.000000   0.000000   x 
            x  O           13         0.811853   0.000000   0.000000   x 
            x  O           14         0.379823   0.615564   0.253603   x 
            x  O           15         0.384436   0.764258   0.638039   x 
            x  O           16         0.873780   0.235742   0.620177   x 
            x  O           17         0.126220   0.746397   0.361961   x 
            x  O           18         0.638039   0.384436   0.764258   x 
            x  O           19         0.620177   0.873780   0.235742   x 
            x  O           20         0.361961   0.126220   0.746397   x 
            x  Si           1         0.000000   0.000000   0.000000   x 
            x  Bi           1         0.665964   0.808749   0.505419   x 
            x  Bi           2         0.505419   0.665964   0.808749   x 
            x  Bi           3         0.303330   0.160545   0.494581   x 
            x  Bi           4         0.696670   0.191251   0.857215   x 
            x  Bi           5         0.334036   0.839455   0.142785   x 
            x  Bi           6         0.808749   0.505419   0.665964   x 
            x  Bi           7         0.494581   0.303330   0.160545   x 
            x  Bi           8         0.857215   0.696670   0.191251   x 
            x  Bi           9         0.142785   0.334036   0.839455   x 
            x  Bi          10         0.160545   0.494581   0.303330   x 
            x  Bi          11         0.191251   0.857215   0.696670   x 
            x  Bi          12         0.839455   0.142785   0.334036   x 
            xxxxxxxxxxxxxxxxxxxxxxxxxxxxxxxxxxxxxxxxxxxxxxxxxxxxxxxxxxxx
 
 
                         No user defined ionic velocities
 
                           -------------------------------
                                   Details of Species
                           -------------------------------
 
                               Mass of species in AMU
                                    O   15.9994000
                                    Si   28.0855000
                                    Bi  208.9803800
 
                          Electric Quadrupole Moment (Barn)
                                    O   -0.0255800 Isotope 17
                                    Si    1.0000000 No Isotope Defined
                                    Bi   -0.5160000 Isotope209
 
                          Files used for pseudopotentials:
                                    O O_NCP19_PBE_OTF.usp
                                    Si Si_NCP19_PBE_OTF.usp
                                    Bi Bi_NCP19_PBE_OTF.usp
 
                           -------------------------------
                              k-Points For BZ Sampling
                           -------------------------------
                       MP grid size for SCF calculation is  4  4  4
                            with an offset of   0.000  0.000  0.000
                       Number of kpoints used =             7
 
                           -------------------------------
                               Symmetry and Constraints
                           -------------------------------
 
                      Maximum deviation from symmetry = 0.359792E-13     ANG
 
                      Number of symmetry operations   =          12
         There are no ionic constraints specified or generated for this cell
                      Point group of crystal =    28: T, 23, 2 3
                      Space group of crystal =   197: I23, I 2 2 3
 
             Set iprint > 1 for details on symmetry rotations/translations
 
                         Centre of mass is NOT constrained
 
                         Number of cell constraints= 5
                         Cell constraints are:  1 1 1 0 0 0
 
                         External pressure/stress (GPa)
                          0.00000   0.00000   0.00000
                                    0.00000   0.00000
                                              0.00000
 
+---------------- MEMORY AND SCRATCH DISK ESTIMATES PER PROCESS --------------+
|                                                     Memory          Disk    |
| Baseline code, static data and system overhead      516.0 MB         0.0 MB |
| BLAS internal memory storage                          0.0 MB         0.0 MB |
| Model and support data                              493.5 MB         0.0 MB |
| Electronic energy minimisation requirements         532.9 MB         0.0 MB |
| Force calculation requirements                      182.6 MB         0.0 MB |
| Stress calculation requirements                     201.8 MB         0.0 MB |
|                                               ----------------------------- |
| Approx. total storage required per process         1542.5 MB         0.0 MB |
|                                                                             |
| Requirements will fluctuate during execution and may exceed these estimates |
+-----------------------------------------------------------------------------+
Calculating approximate eigenstates for fixed initial Hamiltonian
Cut-off for approx. calculation is   89.988 eV
Improving approx. states at cut-off of  610.000 eV
Resetting cut-off to 1220.000 eV
Improving states further at cut-off of 1220.000 eV
Calculating total energy with cut-off of 1220.000 eV.
------------------------------------------------------------------------ <-- SCF
SCF loop      Energy                           Energy gain       Timer   <-- SCF
                                               per atom          (sec)   <-- SCF
------------------------------------------------------------------------ <-- SCF
Initial  -1.72713870E+004                                         67.19  <-- SCF
      1  -1.72762457E+004                    1.47233819E-001     157.59  <-- SCF
      2  -1.73086248E+004                    9.81183768E-001     241.60  <-- SCF
      3  -1.73167289E+004                    2.45579899E-001     325.61  <-- SCF
      4  -1.73198806E+004                    9.55057666E-002     409.62  <-- SCF
      5  -1.73211544E+004                    3.85992980E-002     493.65  <-- SCF
      6  -1.73216449E+004                    1.48652118E-002     577.69  <-- SCF
      7  -1.73218248E+004                    5.44966614E-003     661.73  <-- SCF
      8  -1.73218913E+004                    2.01532098E-003     745.75  <-- SCF
      9  -1.73219160E+004                    7.48850055E-004     829.74  <-- SCF
     10  -1.73219254E+004                    2.83460517E-004     913.73  <-- SCF
     11  -1.73219289E+004                    1.08049665E-004     997.72  <-- SCF
     12  -1.73219303E+004                    4.17709633E-005    1081.69  <-- SCF
     13  -1.73219308E+004                    1.62708376E-005    1165.66  <-- SCF
     14  -1.73219310E+004                    6.40800463E-006    1249.63  <-- SCF
     15  -1.73219311E+004                    2.53575184E-006    1333.61  <-- SCF
     16  -1.73219312E+004                    1.01279437E-006    1417.61  <-- SCF
     17  -1.73219312E+004                    4.06214711E-007    1501.59  <-- SCF
     18  -1.73219312E+004                    1.64188289E-007    1585.58  <-- SCF
     19  -1.73219312E+004                    6.65554850E-008    1669.56  <-- SCF
     20  -1.73219312E+004                    2.72145670E-008    1753.52  <-- SCF
     21  -1.73219312E+004                    1.11055645E-008    1837.48  <-- SCF
     22  -1.73219312E+004                    4.59161741E-009    1921.46  <-- SCF
     23  -1.73219312E+004                    1.87508231E-009    2005.48  <-- SCF
     24  -1.73219312E+004                    8.10798264E-010    2089.56  <-- SCF
     25  -1.73219312E+004                    3.23888080E-010    2173.63  <-- SCF
     26  -1.73219312E+004                    1.29461487E-010    2257.68  <-- SCF
     27  -1.73219312E+004                    3.57167463E-011    2350.29  <-- SCF
------------------------------------------------------------------------ <-- SCF
 
Final energy =  -17321.93118456     eV
(energy not corrected for finite basis set)
 

Writing analysis data to test.castep_bin

Writing model to test.check

 Efield perturbation    1:  X                                          2586.08s
  Parallel strategy changed for perturbation using 32 k-points
  Data is distributed by G-vector(1-way) and k-point(7-way) and band(1-way)
  +---------------- MEMORY AND SCRATCH DISK ESTIMATES PER PROCESS --------------+
  |                                                     Memory          Disk    |
  | Baseline code, static data and system overhead      516.0 MB         0.0 MB |
  | BLAS internal memory storage                          0.0 MB         0.0 MB |
  | Model and support data                              493.8 MB         0.0 MB |
  | DFPT E-field response requirements                 2993.0 MB         0.0 MB |
  |                                               ----------------------------- |
  | Approx. total storage required per process         4002.8 MB         0.0 MB |
  |                                                                             |
  | Requirements will fluctuate during execution and may exceed these estimates |
  +-----------------------------------------------------------------------------+

 Efield perturbation    2:  Y                                          9529.41s

 Efield perturbation    3:  Z                                         16400.47s
  Computed auxilliary wavefunction - u2_E1E1 (1 of 9)                  30598.83
  Computed auxilliary wavefunction - u2_E1E2 (2 of 9)                  34304.34
  Computed auxilliary wavefunction - u2_E1E3 (3 of 9)                  38015.94
  Computed auxilliary wavefunction - u2_E2E1 (4 of 9)                  41682.59
  Computed auxilliary wavefunction - u2_E2E2 (5 of 9)                  44893.13
 +-------------------------------------------------+
 |                                                 |
 |      CCC   AA    SSS  TTTTT  EEEEE  PPPP        |
 |     C     A  A  S       T    E      P   P       |
 |     C     AAAA   SS     T    EEE    PPPP        |
 |     C     A  A     S    T    E      P           |
 |      CCC  A  A  SSS     T    EEEEE  P           |
 |                                                 |
 +-------------------------------------------------+
 |                                                 |
 | Welcome to Academic Release CASTEP version 24.1 |
 | Ab Initio Total Energy Program                  |
 |                                                 |
 | Authors:                                        |
 | M. Segall, M. Probert, C. Pickard, P. Hasnip,   |
 | S. Clark, K. Refson, J. R. Yates,               |
 | A. Bartok-Partay, M. Payne                      |
 |                                                 |
 | Contributors:                                   |
 | P. Lindan, P. Haynes, J. White, V. Milman,      |
 | N. Govind, M. Gibson, P. Tulip, V. Cocula,      |
 | B. Montanari, D. Quigley, M. Glover,            |
 | L. Bernasconi, A. Perlov, M. Plummer,           |
 | E. McNellis, J. Meyer, J. Gale, D. Jochym       |
 | J. Aarons, B. Walker, R. Gillen, D. Jones       |
 | T. Green, I. J. Bush, C. J. Armstrong,          |
 | E. J. Higgins, E. L. Brown, M. S. McFly,        |
 | J. Wilkins, B-C. Shih, P. J. P. Byrne,          |
 | R. J. Maurer, J. C. Womack, J. Dziedzic,        |
 | L. LeBlanc, T. K. Stenczel, J. Kermode,         |
 | S. Sturniolo, B. Shi, B. Durham, M. Evans,      |
 | M. J. Smith, A. Tamerus, Z. Hawkhead,           |
 | V. Ravindran, T. Hollins, S. A. Joyce,          |
 | R. T. Strong, A. M. Reilly, S. J. Donaldson     |
 |                                                 |
 | Copyright (c) 2000 - 2023                       |
 |                                                 |
 |     Distributed under license from Cambridge    |
 |     Enterprise for academic use only.           |
 |                                                 |
 | Please cite                                     |
 |                                                 |
 |     "First principles methods using CASTEP"     |
 |                                                 |
 |         Zeitschrift fuer Kristallographie       |
 |           220(5-6) pp. 567-570 (2005)           |
 |                                                 |
 | S. J. Clark, M. D. Segall, C. J. Pickard,       |
 | P. J. Hasnip, M. J. Probert, K. Refson,         |
 | M. C. Payne                                     |
 |                                                 |
 |       in all publications arising from          |
 |              your use of CASTEP                 |
 |                                                 |
 +-------------------------------------------------+
 |                                                 |
 |              http://www.castep.org              |
 |                                                 |
 +-------------------------------------------------+
 
 
 
 Compiled for linux_x86_64_ifort on Tue, 12 Nov 2024 09:06:09 +0100
 from code version 6355fd106  Castep241_branch  Thu Mar 7 17:56:19 2024 +0000
 Compiler: Intel Fortran 2021.10.0; Optimisation: fast
 Comms   : Intel(R) MPI Library 2021.10 for Linux* OS
 MATHLIBS: Intel MKL(2024.2-Product) (LAPACK version 3.11.0)
 FFT Lib : fftw3 version fftw-3.3.10-sse2-avx-avx2-avx2_128
 Fundamental constants values: CODATA 2018
 
 Run started: Mon, 03 Feb 2025 13:04:00 +0100

 Warning in parameters_validate: current value of 
   ELEC_EIGENVALUE_TOL = 0.100000E-08eV
   is too large to achieve desired level of convergence of response properties.
   This may cause convergence failures and/or inaccuracy of results
   of PHONON+EFIELD calculations - recommend you use a smaller value, e.g. 
   ELEC_EIGENVALUE_TOL = 0.343750E-10eV
 +-------------------------------------------------+
 |                                                 |
 |  D D D D    F F F F F  P P P P     T T T T T    |
 |  D       D  F          P       P       T        |
 |  D       D  F F F F    P P P P         T        |
 |  D       D  F          P               T        |
 |  D D D D    F          P               T        |
 |                                                 |
 +-------------------------------------------------+
 |                                                 |
 | Welcome to Castep Linear Response (DFPT)        |
 |                                                 |
 | Copyright (c) 2006 - 2023                       |
 |                                                 |
 | Please cite the following publications in all   |
 | work arising from your use of CASTEP LR.        |
 |                                                 |
 | K. Refson, S. J. Clark and P. R. Tulip          |
 | Variational density functional perturbation     |
 | theory for dielectrics and lattice dynamics     |
 | Phys. Rev. B 73(15), 155114 (2006)              |
 +-------------------------------------------------+
 
Reading continuation data from model file test.check
 
 Pseudo atomic calculation performed for O 2s2 2p4
 
 Converged in 43 iterations to a total energy of -429.3747 eV
 
 Pseudo atomic calculation performed for Si 3s2 3p2
 
 Converged in 25 iterations to a total energy of -215.5493 eV
 
 Pseudo atomic calculation performed for Bi 6s2 6p3
 
 Converged in 25 iterations to a total energy of -693.8005 eV
Initialising basis set for model.
Reinitialising basis set for current geometry.
Continuing from previous run with ground state wavefunction.
Continuing from previous run with ground state density.
 Calculation parallelised over 7 processes.
 Data is distributed by k-point(7-way)

 ************************************ Title ************************************
 

 ***************************** General Parameters ******************************
  
 output verbosity                               : normal  (1)
 continuing from                                : test.check
 write checkpoint data to                       : test.check
 type of calculation                            : Phonon followed by E-field
 stress calculation                             : on
 density difference calculation                 : off
 electron localisation func (ELF) calculation   : off
 Hirshfeld analysis                             : off
 polarisation (Berry phase) analysis            : off
 molecular orbital projected DOS                : off
 deltaSCF calculation                           : off
 unlimited duration calculation
 timing information                             : on
 memory usage estimate                          : on
 write extra output files                       : on
 write final potential to formatted file        : off
 write final density to formatted file          : off
 write structure in CIF formatted file          : on
 write structure in CELL formatted file         : on
 write BibTeX reference list                    : on
 write OTFG pseudopotential files               : on
 write electrostatic potential file             : on
 write bands file                               : on
 checkpoint writing                             : both castep_bin and check files
  
 output         length unit                     : A
 output           mass unit                     : amu
 output           time unit                     : ps
 output         charge unit                     : e
 output           spin unit                     : hbar/2
 output         energy unit                     : eV
 output          force unit                     : eV/A
 output       velocity unit                     : A/ps
 output       pressure unit                     : GPa
 output     inv_length unit                     : 1/A
 output      frequency unit                     : cm-1
 output force constant unit                     : eV/A**2
 output         volume unit                     : A**3
 output   IR intensity unit                     : (D/A)**2/amu
 output         dipole unit                     : D
 output         efield unit                     : eV/A/e
 output        entropy unit                     : J/mol/K
 output    efield chi2 unit                     : pm/V
  
 wavefunctions paging                           : none
 random number generator seed                   :  141559369
 data distribution                              : optimal for this architecture
 optimization strategy                          : maximize speed(+++)

 *********************** Exchange-Correlation Parameters ***********************
  
 using functional                               : Perdew Burke Ernzerhof
 relativistic treatment                         : Koelling-Harmon
 DFT+D: Semi-empirical dispersion correction    : off

 ************************* Pseudopotential Parameters **************************
  
 pseudopotential representation                 : reciprocal space
 <beta|phi> representation                      : reciprocal space
 spin-orbit coupling                            : off

 **************************** Basis Set Parameters *****************************
  
 plane wave basis set cut-off                   :  1220.0000   eV
 size of standard grid                          :     2.0000
 size of   fine   gmax                          :    35.7889   1/A
 finite basis set correction                    : none

 **************************** Electronic Parameters ****************************
  
 number of  electrons                           :  184.0    
 net charge of system                           :  0.000    
 treating system as non-spin-polarized
 number of bands                                :         96

 ********************* Electronic Minimization Parameters **********************
  
 Method: Treating system as non-metallic,
         and number of  SD  steps               :          1
         and number of  CG  steps               :          4
  
 total energy / atom convergence tol.           : 0.1000E-09   eV
 max force / atom convergence tol.              : ignored
 convergence tolerance window                   :          2   cycles
 max. number of SCF cycles                      :        100
 periodic dipole correction                     : NONE

 ****************************** Phonon Parameters ******************************
  
 phonon calculation method                      : linear response
 phonon convergence tolerance                   : 0.1000E-04   eV/A**2
 max. number of phonon cycles                   :        100
 max. number of phonon CG steps                 :          0
 convergence tolerance window                   :          2   cycles
 DFPT solver method                             : AllBands (Gonze variational method)
 preconditioning scheme                         : TPA     
 fine phonon calculation method                 : none
 LO/TO splitting term                           : included
 acoustic phonon sum rule                       : correct D(q) in recip-space
 Born effective charges                         : calculated
 Born charge sum rule                           : explicitly enforced
 Raman intensities                              : calculated
 Raman frequency window start                   :  0.000       eV
 Raman frequency window stop                    :  1.240       eV
 Raman tensor calculated using                  : DFPT
 phonon k-points                                : use reduced set
 phonon DOS                                     : not calculated
 backups results every                          :        900   seconds

 ***************************** E-Field Parameters ******************************
  
 E-field convergence tolerance                  : 0.1000E-04   A**3
 DFPT solver method                             : AllBands (Gonze variational method)
 ionic contribution to permittivity             : included
 treating system as a crystal, 
 => ignoring 3 lowest modes when calculating ionic  contribution to permittivity
 calculation with frequency spacing             : 0.4556E-05   cm-1
 Q-factor for lineshape broadening              :    50.0000
 calculate non-linear optical properties        : OFF
 max. number of E-field cycles                  :        500
 max. number of E-field CG steps                :          0
 convergence tolerance window                   :          2   cycles
 band convergence tolerance                     : 0.1000E-08   eV

 *******************************************************************************
  
 
                           -------------------------------
                                      Unit Cell
                           -------------------------------
        Real Lattice(A)                      Reciprocal Lattice(1/A)
    -5.1439990     5.1439990     5.1439990        0.000000000   0.610729641   0.610729641
     5.1439990    -5.1439990     5.1439990        0.610729641   0.000000000   0.610729641
     5.1439990     5.1439990    -5.1439990        0.610729641   0.610729641   0.000000000
 
                       Lattice parameters(A)       Cell Angles
                    a =      8.909668          alpha =  109.471221
                    b =      8.909668          beta  =  109.471221
                    c =      8.909668          gamma =  109.471221
 
                       Current cell volume =           544.455783       A**3
                                   density =             5.245308   AMU/A**3
                                           =             8.710038     g/cm^3
 
                           -------------------------------
                                     Cell Contents
                           -------------------------------
                         Total number of ions in cell =   33
                      Total number of species in cell =    3
                        Max number of any one species =   20
 
            xxxxxxxxxxxxxxxxxxxxxxxxxxxxxxxxxxxxxxxxxxxxxxxxxxxxxxxxxxxx
            x  Element    Atom        Fractional coordinates of atoms  x
            x            Number           u          v          w      x
            x----------------------------------------------------------x
            x  O            1         0.253603   0.379823   0.615564   x 
            x  O            2         0.600998   0.600998   0.600998   x 
            x  O            3         0.188147   0.188147   0.188147   x 
            x  O            4         0.615564   0.253603   0.379823   x 
            x  O            5         0.764258   0.638039   0.384436   x 
            x  O            6         0.000000   0.000000   0.399002   x 
            x  O            7         0.000000   0.000000   0.811853   x 
            x  O            8         0.235742   0.620177   0.873780   x 
            x  O            9         0.000000   0.399002   0.000000   x 
            x  O           10         0.000000   0.811853   0.000000   x 
            x  O           11         0.746397   0.361961   0.126220   x 
            x  O           12         0.399002   0.000000   0.000000   x 
            x  O           13         0.811853   0.000000   0.000000   x 
            x  O           14         0.379823   0.615564   0.253603   x 
            x  O           15         0.384436   0.764258   0.638039   x 
            x  O           16         0.873780   0.235742   0.620177   x 
            x  O           17         0.126220   0.746397   0.361961   x 
            x  O           18         0.638039   0.384436   0.764258   x 
            x  O           19         0.620177   0.873780   0.235742   x 
            x  O           20         0.361961   0.126220   0.746397   x 
            x  Si           1         0.000000   0.000000   0.000000   x 
            x  Bi           1         0.665964   0.808749   0.505419   x 
            x  Bi           2         0.505419   0.665964   0.808749   x 
            x  Bi           3         0.303330   0.160545   0.494581   x 
            x  Bi           4         0.696670   0.191251   0.857215   x 
            x  Bi           5         0.334036   0.839455   0.142785   x 
            x  Bi           6         0.808749   0.505419   0.665964   x 
            x  Bi           7         0.494581   0.303330   0.160545   x 
            x  Bi           8         0.857215   0.696670   0.191251   x 
            x  Bi           9         0.142785   0.334036   0.839455   x 
            x  Bi          10         0.160545   0.494581   0.303330   x 
            x  Bi          11         0.191251   0.857215   0.696670   x 
            x  Bi          12         0.839455   0.142785   0.334036   x 
            xxxxxxxxxxxxxxxxxxxxxxxxxxxxxxxxxxxxxxxxxxxxxxxxxxxxxxxxxxxx
 
 
                         No user defined ionic velocities
 
                           -------------------------------
                                   Details of Species
                           -------------------------------
 
                               Mass of species in AMU
                                    O   15.9994000
                                    Si   28.0855000
                                    Bi  208.9803800
 
                          Electric Quadrupole Moment (Barn)
                                    O   -0.0255800 Isotope 17
                                    Si    1.0000000 No Isotope Defined
                                    Bi   -0.5160000 Isotope209
 
                          Files used for pseudopotentials:
                                    O O_NCP19_PBE_OTF.usp
                                    Si Si_NCP19_PBE_OTF.usp
                                    Bi Bi_NCP19_PBE_OTF.usp
 
                           -------------------------------
                              k-Points For BZ Sampling
                           -------------------------------
                       MP grid size for SCF calculation is  4  4  4
                            with an offset of   0.000  0.000  0.000
                       Number of kpoints used =             7
 
                           -------------------------------
                               Symmetry and Constraints
                           -------------------------------
 
                      Maximum deviation from symmetry = 0.359792E-13     ANG
 
                      Number of symmetry operations   =          12
         There are no ionic constraints specified or generated for this cell
                      Point group of crystal =    28: T, 23, 2 3
                      Space group of crystal =   197: I23, I 2 2 3
 
             Set iprint > 1 for details on symmetry rotations/translations
 
                         Centre of mass is NOT constrained
 
                         Number of cell constraints= 5
                         Cell constraints are:  1 1 1 0 0 0
 
                         External pressure/stress (GPa)
                          0.00000   0.00000   0.00000
                                    0.00000   0.00000
                                              0.00000

 Efield perturbation    1:  X                                           334.98s
  Parallel strategy changed for perturbation using 32 k-points
  Data is distributed by G-vector(1-way) and k-point(7-way) and band(1-way)
  +---------------- MEMORY AND SCRATCH DISK ESTIMATES PER PROCESS --------------+
  |                                                     Memory          Disk    |
  | Baseline code, static data and system overhead      516.0 MB         0.0 MB |
  | BLAS internal memory storage                          0.0 MB         0.0 MB |
  | Model and support data                              493.8 MB         0.0 MB |
  | DFPT E-field response requirements                 2993.0 MB         0.0 MB |
  |                                               ----------------------------- |
  | Approx. total storage required per process         4002.8 MB         0.0 MB |
  |                                                                             |
  | Requirements will fluctuate during execution and may exceed these estimates |
  +-----------------------------------------------------------------------------+

 Efield perturbation    2:  Y                                          7566.15s

 Efield perturbation    3:  Z                                         14757.21s
  Computed auxilliary wavefunction - u2_E1E1 (1 of 9)                  29364.32
  Computed auxilliary wavefunction - u2_E1E2 (2 of 9)                  33280.61
  Computed auxilliary wavefunction - u2_E1E3 (3 of 9)                  37154.86
  Computed auxilliary wavefunction - u2_E2E1 (4 of 9)                  40896.71
  Computed auxilliary wavefunction - u2_E2E2 (5 of 9)                  44269.66
  Computed auxilliary wavefunction - u2_E2E3 (6 of 9)                  48002.02
  Computed auxilliary wavefunction - u2_E3E1 (7 of 9)                  51782.33
  Computed auxilliary wavefunction - u2_E3E2 (8 of 9)                  68440.18
  Computed auxilliary wavefunction - u2_E3E3 (9 of 9)                  71718.24

Writing analysis data to test.castep_bin

Writing model to test.check
 Perturbation    1 (of   99): O     1 X at q=( 0.000, 0.000, 0.000):  76952.43s
  Parallel strategy changed for perturbation using 32 k-points
  Data is distributed by G-vector(1-way) and k-point(7-way) and band(1-way)
  +---------------- MEMORY AND SCRATCH DISK ESTIMATES PER PROCESS --------------+
  |                                                     Memory          Disk    |
  | Baseline code, static data and system overhead      516.0 MB         0.0 MB |
  | BLAS internal memory storage                          0.0 MB         0.0 MB |
  | Model and support data                              493.8 MB         0.0 MB |
  | DFPT phonon calculation requirements               4156.2 MB         0.0 MB |
  |                                               ----------------------------- |
  | Approx. total storage required per process         5166.1 MB         0.0 MB |
  |                                                                             |
  | Requirements will fluctuate during execution and may exceed these estimates |
  +-----------------------------------------------------------------------------+

Writing analysis data to test.castep_bin

Writing model to test.check
 Perturbation    2 (of   99): O     2 X at q=( 0.000, 0.000, 0.000):  83374.60s

Writing analysis data to test.castep_bin

Writing model to test.check
 Perturbation    3 (of   99): O     3 X at q=( 0.000, 0.000, 0.000):  89517.13s

Writing analysis data to test.castep_bin

Writing model to test.check
 Perturbation    4 (of   99): O     4 X at q=( 0.000, 0.000, 0.000):  95601.52s

Writing analysis data to test.castep_bin

Writing model to test.check
 Perturbation    5 (of   99): O     5 X at q=( 0.000, 0.000, 0.000): 101733.66s

Writing analysis data to test.castep_bin

Writing model to test.check
 Perturbation    6 (of   99): O     6 X at q=( 0.000, 0.000, 0.000): 107644.53s

Writing analysis data to test.castep_bin

Writing model to test.check
 Perturbation    7 (of   99): O     7 X at q=( 0.000, 0.000, 0.000): 114875.66s

Writing analysis data to test.castep_bin

Writing model to test.check
 Perturbation    8 (of   99): O     8 X at q=( 0.000, 0.000, 0.000): 123251.24s

Writing analysis data to test.castep_bin

Writing model to test.check
 Perturbation    9 (of   99): O     9 X at q=( 0.000, 0.000, 0.000): 129192.14s

Writing analysis data to test.castep_bin

Writing model to test.check
 Perturbation   10 (of   99): O    10 X at q=( 0.000, 0.000, 0.000): 134972.34s

Writing analysis data to test.castep_bin

Writing model to test.check
 Perturbation   11 (of   99): O    11 X at q=( 0.000, 0.000, 0.000): 140747.19s

Writing analysis data to test.castep_bin

Writing model to test.check
 Perturbation   12 (of   99): O    12 X at q=( 0.000, 0.000, 0.000): 146658.74s

Writing analysis data to test.castep_bin

Writing model to test.check
 Perturbation   13 (of   99): O    13 X at q=( 0.000, 0.000, 0.000): 152424.37s

Writing analysis data to test.castep_bin

Writing model to test.check
 Perturbation   14 (of   99): O    14 X at q=( 0.000, 0.000, 0.000): 158694.60s

Writing analysis data to test.castep_bin

Writing model to test.check
 Perturbation   15 (of   99): O    15 X at q=( 0.000, 0.000, 0.000): 164744.73s

Writing analysis data to test.castep_bin

Writing model to test.check
 Perturbation   16 (of   99): O    16 X at q=( 0.000, 0.000, 0.000): 170616.26s

Writing analysis data to test.castep_bin

Writing model to test.check
 Perturbation   17 (of   99): O    17 X at q=( 0.000, 0.000, 0.000): 177086.84s

Writing analysis data to test.castep_bin

Writing model to test.check
 Perturbation   18 (of   99): O    18 X at q=( 0.000, 0.000, 0.000): 182999.05s

Writing analysis data to test.castep_bin

Writing model to test.check
 Perturbation   19 (of   99): O    19 X at q=( 0.000, 0.000, 0.000): 188900.71s

Writing analysis data to test.castep_bin

Writing model to test.check
 Perturbation   20 (of   99): O    20 X at q=( 0.000, 0.000, 0.000): 194830.83s

Writing analysis data to test.castep_bin

Writing model to test.check
 Perturbation   21 (of   99): Si    1 X at q=( 0.000, 0.000, 0.000): 200739.60s

Writing analysis data to test.castep_bin

Writing model to test.check
 Perturbation   22 (of   99): Bi    1 X at q=( 0.000, 0.000, 0.000): 205759.47s

Writing analysis data to test.castep_bin

Writing model to test.check
 Perturbation   23 (of   99): Bi    2 X at q=( 0.000, 0.000, 0.000): 211586.19s

Writing analysis data to test.castep_bin

Writing model to test.check
 Perturbation   24 (of   99): Bi    3 X at q=( 0.000, 0.000, 0.000): 217106.24s

Writing analysis data to test.castep_bin

Writing model to test.check
 Perturbation   25 (of   99): Bi    4 X at q=( 0.000, 0.000, 0.000): 222784.08s

Writing analysis data to test.castep_bin

Writing model to test.check
 Perturbation   26 (of   99): Bi    5 X at q=( 0.000, 0.000, 0.000): 228415.10s

Writing analysis data to test.castep_bin

Writing model to test.check
 Perturbation   27 (of   99): Bi    6 X at q=( 0.000, 0.000, 0.000): 234086.78s

Writing analysis data to test.castep_bin

Writing model to test.check
 Perturbation   28 (of   99): Bi    7 X at q=( 0.000, 0.000, 0.000): 239615.32s

Writing analysis data to test.castep_bin

Writing model to test.check
 Perturbation   29 (of   99): Bi    8 X at q=( 0.000, 0.000, 0.000): 245068.51s

Writing analysis data to test.castep_bin

Writing model to test.check
 Perturbation   30 (of   99): Bi    9 X at q=( 0.000, 0.000, 0.000): 250496.10s

Writing analysis data to test.castep_bin

Writing model to test.check
 Perturbation   31 (of   99): Bi   10 X at q=( 0.000, 0.000, 0.000): 255998.54s

Writing analysis data to test.castep_bin

Writing model to test.check
 Perturbation   32 (of   99): Bi   11 X at q=( 0.000, 0.000, 0.000): 261427.20s

Writing analysis data to test.castep_bin

Writing model to test.check
 Perturbation   33 (of   99): Bi   12 X at q=( 0.000, 0.000, 0.000): 266891.52s

Writing analysis data to test.castep_bin

Writing model to test.check
 Perturbation   34 (of   99): O     1 Y at q=( 0.000, 0.000, 0.000): 272402.71s

Writing analysis data to test.castep_bin

Writing model to test.check
 Perturbation   35 (of   99): O     2 Y at q=( 0.000, 0.000, 0.000): 278274.61s

Writing analysis data to test.castep_bin

Writing model to test.check
 Perturbation   36 (of   99): O     3 Y at q=( 0.000, 0.000, 0.000): 284073.73s

Writing analysis data to test.castep_bin

Writing model to test.check
 Perturbation   37 (of   99): O     4 Y at q=( 0.000, 0.000, 0.000): 289845.21s

Writing analysis data to test.castep_bin

Writing model to test.check
 Perturbation   38 (of   99): O     5 Y at q=( 0.000, 0.000, 0.000): 295738.26s

Writing analysis data to test.castep_bin

Writing model to test.check
 Perturbation   39 (of   99): O     6 Y at q=( 0.000, 0.000, 0.000): 301630.07s

Writing analysis data to test.castep_bin

Writing model to test.check
 Perturbation   40 (of   99): O     7 Y at q=( 0.000, 0.000, 0.000): 307399.38s

Writing analysis data to test.castep_bin

Writing model to test.check
 Perturbation   41 (of   99): O     8 Y at q=( 0.000, 0.000, 0.000): 313152.90s

Writing analysis data to test.castep_bin

Writing model to test.check
 Perturbation   42 (of   99): O     9 Y at q=( 0.000, 0.000, 0.000): 319038.32s

Writing analysis data to test.castep_bin

Writing model to test.check
 Perturbation   43 (of   99): O    10 Y at q=( 0.000, 0.000, 0.000): 324800.81s

Writing analysis data to test.castep_bin

Writing model to test.check
 Perturbation   44 (of   99): O    11 Y at q=( 0.000, 0.000, 0.000): 330555.65s

Writing analysis data to test.castep_bin

Writing model to test.check
 Perturbation   45 (of   99): O    12 Y at q=( 0.000, 0.000, 0.000): 336415.13s

Writing analysis data to test.castep_bin

Writing model to test.check
 Perturbation   46 (of   99): O    13 Y at q=( 0.000, 0.000, 0.000): 342160.21s
 +-------------------------------------------------+
 |                                                 |
 |      CCC   AA    SSS  TTTTT  EEEEE  PPPP        |
 |     C     A  A  S       T    E      P   P       |
 |     C     AAAA   SS     T    EEE    PPPP        |
 |     C     A  A     S    T    E      P           |
 |      CCC  A  A  SSS     T    EEEEE  P           |
 |                                                 |
[...]
 +                                                                            +
 + Mode number:  76 Raman tensor       Depolarisation Ratio                   +
 +     0.0000    0.0099   -0.0131      0.750000                               +
 +     0.0099   -0.0000    0.0033                                             +
 +    -0.0131    0.0033    0.0000                                             +
 +                                                                            +
 + Mode number:  77 Raman tensor       Depolarisation Ratio                   +
 +     0.0000    0.0068    0.0013      0.750000                               +
 +     0.0068   -0.0000   -0.0153                                             +
 +     0.0013   -0.0153    0.0000                                             +
 +                                                                            +
 + Mode number:  78 Raman tensor       Depolarisation Ratio                   +
 +     0.0000    0.0117    0.0104      0.750000                               +
 +     0.0117   -0.0000    0.0061                                             +
 +     0.0104    0.0061    0.0000                                             +
 +                                                                            +
 + Mode number:  79 Raman tensor       Depolarisation Ratio                   +
 +     0.1496    0.0000   -0.0000      0.750000                               +
 +     0.0000   -0.0624    0.0000                                             +
 +    -0.0000    0.0000   -0.0872                                             +
 +                                                                            +
 + Mode number:  80 Raman tensor       Depolarisation Ratio                   +
 +    -0.0143   -0.0000   -0.0000      0.750000                               +
 +    -0.0000    0.1367   -0.0000                                             +
 +    -0.0000   -0.0000   -0.1224                                             +
 +                                                                            +
 + Mode number:  81 Raman tensor       Depolarisation Ratio                   +
 +     0.0000    0.0265    0.0304      0.750000                               +
 +     0.0265   -0.0000    0.0668                                             +
 +     0.0304    0.0668    0.0000                                             +
 +                                                                            +
 + Mode number:  82 Raman tensor       Depolarisation Ratio                   +
 +     0.0000   -0.0150    0.0718      0.750000                               +
 +    -0.0150    0.0000   -0.0267                                             +
 +     0.0718   -0.0267   -0.0000                                             +
 +                                                                            +
 + Mode number:  83 Raman tensor       Depolarisation Ratio                   +
 +    -0.0000    0.0718    0.0038      0.750000                               +
 +     0.0718    0.0000   -0.0302                                             +
 +     0.0038   -0.0302    0.0000                                             +
 +                                                                            +
 + Mode number:  84 Raman tensor       Depolarisation Ratio                   +
 +     0.0000   -0.0178    0.0237      0.750000                               +
 +    -0.0178    0.0000   -0.0125                                             +
 +     0.0237   -0.0125   -0.0000                                             +
 +                                                                            +
 + Mode number:  85 Raman tensor       Depolarisation Ratio                   +
 +     0.0000    0.0085   -0.0092      0.750000                               +
 +     0.0085   -0.0000   -0.0297                                             +
 +    -0.0092   -0.0297    0.0000                                             +
 +                                                                            +
 + Mode number:  86 Raman tensor       Depolarisation Ratio                   +
 +    -0.0000   -0.0254   -0.0197      0.750000                               +
 +    -0.0254   -0.0000   -0.0012                                             +
 +    -0.0197   -0.0012   -0.0000                                             +
 +                                                                            +
 + Mode number:  87 Raman tensor       Depolarisation Ratio                   +
 +    -0.4356   -0.0000   -0.0000      0.000000                               +
 +    -0.0000   -0.4356   -0.0000                                             +
 +    -0.0000   -0.0000   -0.4356                                             +
 +                                                                            +
 + Mode number:  88 Raman tensor       Depolarisation Ratio                   +
 +     0.0000   -0.0038   -0.0045      0.750000                               +
 +    -0.0038   -0.0000   -0.0176                                             +
 +    -0.0045   -0.0176   -0.0000                                             +
 +                                                                            +
 + Mode number:  89 Raman tensor       Depolarisation Ratio                   +
 +     0.0000    0.0134   -0.0129      0.750000                               +
 +     0.0134   -0.0000    0.0004                                             +
 +    -0.0129    0.0004    0.0000                                             +
 +                                                                            +
 + Mode number:  90 Raman tensor       Depolarisation Ratio                   +
 +     0.0000   -0.0123   -0.0126      0.750000                               +
 +    -0.0123   -0.0000    0.0059                                             +
 +    -0.0126    0.0059   -0.0000                                             +
 +                                                                            +
 + Mode number:  91 Raman tensor       Depolarisation Ratio                   +
 +     0.0000    0.0091    0.0018      0.750000                               +
 +     0.0091   -0.0000   -0.0499                                             +
 +     0.0018   -0.0499    0.0000                                             +
 +                                                                            +
 + Mode number:  92 Raman tensor       Depolarisation Ratio                   +
 +     0.0000    0.0056   -0.0504      0.750000                               +
 +     0.0056   -0.0000   -0.0008                                             +
 +    -0.0504   -0.0008   -0.0000                                             +
 +                                                                            +
 + Mode number:  93 Raman tensor       Depolarisation Ratio                   +
 +    -0.0000   -0.0496   -0.0054      0.750000                               +
 +    -0.0496    0.0000   -0.0093                                             +
 +    -0.0054   -0.0093    0.0000                                             +
 +                                                                            +
 + Mode number:  94 Raman tensor       Depolarisation Ratio                   +
 +    -0.2415   -0.0000   -0.0000      0.750000                               +
 +    -0.0000    0.2075   -0.0000                                             +
 +    -0.0000   -0.0000    0.0341                                             +
 +                                                                            +
 + Mode number:  95 Raman tensor       Depolarisation Ratio                   +
 +    -0.1001    0.0000    0.0000      0.750000                               +
 +     0.0000   -0.1591   -0.0000                                             +
 +     0.0000   -0.0000    0.2592                                             +
 +                                                                            +
 + Mode number:  96 Raman tensor       Depolarisation Ratio                   +
 +    -0.0278   -0.0000   -0.0000      0.000000                               +
 +    -0.0000   -0.0278   -0.0000                                             +
 +    -0.0000   -0.0000   -0.0278                                             +
 +                                                                            +
 + Mode number:  97 Raman tensor       Depolarisation Ratio                   +
 +    -0.0000    0.0352   -0.0324      0.750000                               +
 +     0.0352   -0.0000   -0.0050                                             +
 +    -0.0324   -0.0050   -0.0000                                             +
 +                                                                            +
 + Mode number:  98 Raman tensor       Depolarisation Ratio                   +
 +     0.0000    0.0108    0.0184      0.750000                               +
 +     0.0108   -0.0000   -0.0431                                             +
 +     0.0184   -0.0431    0.0000                                             +
 +                                                                            +
 + Mode number:  99 Raman tensor       Depolarisation Ratio                   +
 +    -0.0000    0.0309    0.0304      0.750000                               +
 +     0.0309   -0.0000    0.0207                                             +
 +     0.0304    0.0207   -0.0000                                             +
 +                                                                            +
 +----------------------------------------------------------------------------+
  

 ===============================================================================
        Optical Permittivity (f->infinity)             DC Permittivity (f=0)
        ----------------------------------             ---------------------
         6.65329     0.00000     0.00000        30.96276     0.00000     0.00000
         0.00000     6.65329     0.00000         0.00000    30.96276     0.00000
         0.00000     0.00000     6.65329         0.00000     0.00000    30.96276
 ===============================================================================

 ===============================================================================
                                    Polarisabilities (A**3)
                Optical (f->infinity)                       Static  (f=0)
                ---------------------                       -------------
       244.93670     0.00000     0.00000      1298.17898     0.00000     0.00000
         0.00000   244.93670     0.00000         0.00000  1298.17898     0.00000
         0.00000     0.00000   244.93670         0.00000     0.00000  1298.17898
 ===============================================================================
 ===================================================
                   Born Effective Charges
                   ----------------------
   O       1       -3.37356    -0.08534    -0.71036
                   -0.18648    -1.67028    -0.21069
                   -0.22725    -0.09284    -3.00800
   O       2       -2.82924     0.88707     0.68117
                    0.68117    -2.82924     0.88707
                    0.88707     0.68117    -2.82924
   O       3       -2.66191    -0.10747    -0.27281
                   -0.27281    -2.66191    -0.10747
                   -0.10747    -0.27281    -2.66191
   O       4       -3.00800    -0.22725    -0.09284
                   -0.71036    -3.37356    -0.08534
                   -0.21069    -0.18648    -1.67028
   O       5       -3.37356    -0.08534     0.71036
                   -0.18648    -1.67028     0.21069
                    0.22725     0.09284    -3.00800
   O       6       -2.82924     0.88707    -0.68117
                    0.68117    -2.82924    -0.88707
                   -0.88707    -0.68117    -2.82924
   O       7       -2.66191    -0.10747     0.27281
                   -0.27281    -2.66191     0.10747
                    0.10747     0.27281    -2.66191
   O       8       -3.37356     0.08534    -0.71036
                    0.18648    -1.67028     0.21069
                   -0.22725     0.09284    -3.00800
   O       9       -2.82924    -0.88707     0.68117
                   -0.68117    -2.82924    -0.88707
                    0.88707    -0.68117    -2.82924
   O      10       -2.66191     0.10747    -0.27281
                    0.27281    -2.66191     0.10747
                   -0.10747     0.27281    -2.66191
   O      11       -3.37356     0.08534     0.71036
                    0.18648    -1.67028    -0.21069
                    0.22725    -0.09284    -3.00800
   O      12       -2.82924    -0.88707    -0.68117
                   -0.68117    -2.82924     0.88707
                   -0.88707     0.68117    -2.82924
   O      13       -2.66191     0.10747     0.27281
                    0.27281    -2.66191    -0.10747
                    0.10747    -0.27281    -2.66191
   O      14       -1.67028    -0.21069    -0.18648
                   -0.09284    -3.00800    -0.22725
                   -0.08534    -0.71036    -3.37356
   O      15       -3.00800     0.22725     0.09284
                    0.71036    -3.37356    -0.08534
                    0.21069    -0.18648    -1.67028
   O      16       -3.00800    -0.22725     0.09284
                   -0.71036    -3.37356     0.08534
                    0.21069     0.18648    -1.67028
   O      17       -3.00800     0.22725    -0.09284
                    0.71036    -3.37356     0.08534
                   -0.21069     0.18648    -1.67028
   O      18       -1.67028     0.21069    -0.18648
                    0.09284    -3.00800     0.22725
                   -0.08534     0.71036    -3.37356
   O      19       -1.67028     0.21069     0.18648
                    0.09284    -3.00800    -0.22725
                    0.08534    -0.71036    -3.37356
   O      20       -1.67028    -0.21069     0.18648
                   -0.09284    -3.00800     0.22725
                    0.08534     0.71036    -3.37356
   Si      1        3.25172     0.00000     0.00000
                    0.00000     3.25172     0.00000
                    0.00000     0.00000     3.25172
   Bi      1        3.37249     0.61789    -0.02033
                    0.21907     4.88220    -0.07147
                   -0.06573    -0.24570     4.47536
   Bi      2        4.47536    -0.06573    -0.24570
                   -0.02033     3.37249     0.61789
                   -0.07147     0.21907     4.88220
   Bi      3        3.37249     0.61789     0.02033
                    0.21907     4.88220     0.07147
                    0.06573     0.24570     4.47536
   Bi      4        3.37249    -0.61789    -0.02033
                   -0.21907     4.88220     0.07147
                   -0.06573     0.24570     4.47536
   Bi      5        3.37249    -0.61789     0.02033
                   -0.21907     4.88220    -0.07147
                    0.06573    -0.24570     4.47536
   Bi      6        4.88220    -0.07147     0.21907
                   -0.24570     4.47536    -0.06573
                    0.61789    -0.02033     3.37249
   Bi      7        4.47536     0.06573     0.24570
                    0.02033     3.37249     0.61789
                    0.07147     0.21907     4.88220
   Bi      8        4.47536    -0.06573     0.24570
                   -0.02033     3.37249    -0.61789
                    0.07147    -0.21907     4.88220
   Bi      9        4.47536     0.06573    -0.24570
                    0.02033     3.37249    -0.61789
                   -0.07147    -0.21907     4.88220
   Bi     10        4.88220     0.07147     0.21907
                    0.24570     4.47536     0.06573
                    0.61789     0.02033     3.37249
   Bi     11        4.88220     0.07147    -0.21907
                    0.24570     4.47536    -0.06573
                   -0.61789    -0.02033     3.37249
   Bi     12        4.88220    -0.07147    -0.21907
                   -0.24570     4.47536     0.06573
                   -0.61789     0.02033     3.37249
 ===================================================
 
 ******************** Symmetrised Forces ********************
 *                                                          *
 *               Cartesian components (eV/A)                *
 * -------------------------------------------------------- *
 *                         x            y            z      *
 *                                                          *
 * O               1     -0.00000      0.00000     -0.00000 *
 * O               2      0.00002      0.00002      0.00002 *
 * O               3      0.00001      0.00001      0.00001 *
 * O               4     -0.00000     -0.00000      0.00000 *
 * O               5      0.00000     -0.00000     -0.00000 *
 * O               6     -0.00002     -0.00002      0.00002 *
 * O               7     -0.00001     -0.00001      0.00001 *
 * O               8      0.00000      0.00000      0.00000 *
 * O               9     -0.00002      0.00002     -0.00002 *
 * O              10     -0.00001      0.00001     -0.00001 *
 * O              11     -0.00000     -0.00000      0.00000 *
 * O              12      0.00002     -0.00002     -0.00002 *
 * O              13      0.00001     -0.00001     -0.00001 *
 * O              14      0.00000     -0.00000     -0.00000 *
 * O              15     -0.00000      0.00000     -0.00000 *
 * O              16      0.00000      0.00000      0.00000 *
 * O              17      0.00000     -0.00000     -0.00000 *
 * O              18     -0.00000     -0.00000      0.00000 *
 * O              19      0.00000      0.00000      0.00000 *
 * O              20     -0.00000      0.00000     -0.00000 *
 * Si              1      0.00000      0.00000      0.00000 *
 * Bi              1     -0.00001      0.00000      0.00001 *
 * Bi              2      0.00001     -0.00001      0.00000 *
 * Bi              3      0.00001     -0.00000      0.00001 *
 * Bi              4      0.00001      0.00000     -0.00001 *
 * Bi              5     -0.00001     -0.00000     -0.00001 *
 * Bi              6      0.00000      0.00001     -0.00001 *
 * Bi              7      0.00001      0.00001     -0.00000 *
 * Bi              8     -0.00001      0.00001      0.00000 *
 * Bi              9     -0.00001     -0.00001     -0.00000 *
 * Bi             10     -0.00000      0.00001      0.00001 *
 * Bi             11      0.00000     -0.00001      0.00001 *
 * Bi             12     -0.00000     -0.00001     -0.00001 *
 *                                                          *
 ************************************************************
 
 *********** Symmetrised Stress Tensor ***********
 *                                               *
 *          Cartesian components (GPa)           *
 * --------------------------------------------- *
 *             x             y             z     *
 *                                               *
 *  x      0.000014      0.000000      0.000000  *
 *  y      0.000000      0.000014      0.000000  *
 *  z      0.000000      0.000000      0.000014  *
 *                                               *
 *  Pressure:   -0.0000                          *
 *                                               *
 *************************************************

Writing analysis data to test.castep_bin

Writing model to test.check
 
 A BibTeX formatted list of references used in this run has been written to 
 test.bib
 
Initialisation time =     10.90 s
Calculation time    = 559499.60 s
Finalisation time   =      2.48 s
Total time          = 559512.98 s
Peak Memory Use     = 7629748 kB
 
Overall parallel efficiency rating: Excellent (99%)
 
Data was distributed by:-
k-point (7-way); efficiency rating: Excellent (99%)
